% Model:              half_space.mph
% Version:            COMSOL 5.2.0.166
% Date:               Oct 1 2016, 08:31
% Dimension:          1
% Nodes:              361
% Expressions:        1
% Description:        Far field
% theta                   r
0                         0
0.017453292519943295      2.1689033943895537E-16
0.03490658503988659       3.447675198783799E-16
0.05235987755982988       5.429330845181581E-16
0.06981317007977318       1.0642887866431075E-15
0.08726646259971647       1.5040743107939595E-15
0.10471975511965977       1.5590153692889305E-15
0.12217304763960307       1.375804910582123E-15
0.13962634015954636       1.3085149660315417E-15
0.15707963267948966       1.2866285105259143E-15
0.17453292519943295       1.2114981387786161E-15
0.19198621771937624       1.1916509240323779E-15
0.20943951023931953       1.1401870001522835E-15
0.22689280275926285       1.1039750379955117E-15
0.24434609527920614       1.067113363030572E-15
0.2617993877991494        1.0297694292601807E-15
0.2792526803190927        9.822940500839205E-16
0.29670597283903605       9.447039842523277E-16
0.3141592653589793        8.955265446998331E-16
0.3316125578789226        8.394496342527069E-16
0.3490658503988659        8.007909731750971E-16
0.3665191429188092        7.330478769898974E-16
0.3839724354387525        6.900444760276153E-16
0.40142572795869574       6.347017002793973E-16
0.41887902047863906       5.770679541169849E-16
0.4363323129985824        5.369547852693221E-16
0.4537856055185257        4.792953904969941E-16
0.47123889803846897       4.4033623118391753E-16
0.4886921905584123        3.968279261612998E-16
0.5061454830783556        3.558905644632252E-16
0.5235987755982988        3.254406049584301E-16
0.5410520681182421        2.87843236294836E-16
0.5585053606381855        2.650522270592365E-16
0.5759586531581288        2.3732106966936407E-16
0.5934119456780721        2.142176541549154E-16
0.6108652381980153        2.0291978329008415E-16
0.6283185307179586        1.7973346148648096E-16
0.6457718232379019        1.7293393339123036E-16
0.6632251157578452        1.6945231027714496E-16
0.6806784082777885        1.5428425958630757E-16
0.6981317007977318        1.607040733111823E-16
0.715584993317675         1.649628071666741E-16
0.7330382858376184        1.5880772088599473E-16
0.7504915783575616        1.728277489587179E-16
0.767944870877505         1.8593482631748103E-16
0.7853981633974483        1.8892720638781773E-16
0.8028514559173915        2.0420954154194108E-16
0.8203047484373349        2.225155757144897E-16
0.8377580409572781        2.349655405042049E-16
0.8552113334772214        2.5072307746104195E-16
0.8726646259971648        2.665788574761502E-16
0.890117918517108         2.818275131379779E-16
0.9075712110370514        3.019367793390918E-16
0.9250245035569946        3.1752279565116703E-16
0.9424777960769379        3.2505639997767717E-16
0.9599310885968813        3.394143179245113E-16
0.9773843811168246        3.6177712991586336E-16
0.9948376736367678        3.7433747009354934E-16
1.0122909661567112        3.751294522487779E-16
1.0297442586766543        3.813449616591333E-16
1.0471975511965976        3.987008558178942E-16
1.064650843716541         4.1298527157844563E-16
1.0821041362364843        4.1453631095502686E-16
1.0995574287564276        4.0999309967828124E-16
1.117010721276371         4.111015262208385E-16
1.1344640137963142        4.194881152041706E-16
1.1519173063162575        4.272306580374174E-16
1.1693705988362006        4.2750348116342183E-16
1.1868238913561442        4.2021431890402794E-16
1.2042771838760873        4.106367667561304E-16
1.2217304763960306        4.038490970315481E-16
1.239183768915974         4.0067408698414676E-16
1.2566370614359172        3.984245542937541E-16
1.2740903539558606        3.939280755256263E-16
1.2915436464758039        3.8564301599883994E-16
1.3089969389957472        3.738344861170867E-16
1.3264502315156903        3.594585608170741E-16
1.3439035240356338        3.4307746398722424E-16
1.361356816555577         3.2459875115353505E-16
1.3788101090755203        3.0369871527268404E-16
1.3962634015954636        2.8035705828218884E-16
1.413716694115407         2.550894721919601E-16
1.43116998663535          2.2882943143431604E-16
1.4486232791552935        2.0264220542076302E-16
1.4660765716752369        1.774688159309176E-16
1.4835298641951802        1.5399326767809703E-16
1.5009831567151233        1.3262470092199222E-16
1.5184364492350666        1.1354244134122222E-16
1.53588974175501          9.675734467801728E-17
1.5533430342749535        8.216606348705723E-17
1.5707963267948966        6.959389629199714E-17
1.5882496193148399        5.883086883241472E-17
1.605702911834783         4.966738859823727E-17
1.6231562043547263        4.193313996930639E-17
1.6406094968746698        3.553487577458605E-17
1.6580627893946132        3.047032023967789E-17
1.6755160819145563        2.676765097570414E-17
1.6929693744344996        2.431063706152113E-17
1.710422666954443         2.2651310464944936E-17
1.7278759594743864        2.1059901748027306E-17
1.7453292519943295        1.8879056222766298E-17
1.7627825445142729        1.5973472421204876E-17
1.780235837034216         1.3033308377631515E-17
1.7976891295541593        1.1207011164798878E-17
1.8151424220741028        1.047705054775231E-17
1.8325957145940461        9.350315619417087E-18
1.8500490071139892        7.134810388137536E-18
1.8675022996339325        4.80483161882379E-18
1.8849555921538759        3.182668340506566E-18
1.902408884673819         1.2419458883122564E-18
1.9198621771937625        1.3926113005464315E-18
1.9373154697137058        2.967898541428047E-18
1.9547687622336491        4.477911213738904E-18
1.9722220547535922        7.10633504727265E-18
1.9896753472735356        7.950717824166609E-18
2.007128639793479         7.09310510854807E-18
2.0245819323134224        7.846381661869984E-18
2.0420352248333655        6.316277436144324E-18
2.0594885173533086        2.3359198349956977E-18
2.076941809873252         9.84461689424159E-19
2.0943951023931953        3.5100774365422135E-18
2.111848394913139         7.029180358322106E-18
2.129301687433082         7.114212165446492E-18
2.1467549799530254        8.227866044150131E-18
2.1642082724729685        4.6984491494665345E-18
2.1816615649929116        1.072016622832821E-18
2.199114857512855         3.522675306037239E-18
2.2165681500327987        7.012062896000724E-18
2.234021442552742         6.9052957925984834E-18
2.251474735072685         5.530328642609859E-18
2.2689280275926285        1.353062124619875E-19
2.286381320112572         3.475153613068321E-18
2.303834612632515         7.182302579232487E-18
2.321287905152458         4.7803666081780496E-18
2.3387411976724013        2.1428835219924848E-18
2.356194490192345         4.028155844626431E-18
2.3736477827122884        5.182418174768271E-18
2.3911010752322315        5.12352630690673E-18
2.4085543677521746        1.2651765686783006E-18
2.426007660272118         4.095821108993079E-18
2.443460952792061         5.56470820890891E-18
2.4609142453120043        2.9212511949397417E-18
2.478367537831948         3.641199333672235E-18
2.4958208303518914        4.855165773576683E-18
2.5132741228718345        4.959879213581507E-18
2.5307274153917776        2.941725140456542E-18
2.548180707911721         6.039218838548049E-18
2.5656340004316647        5.485946417092538E-18
2.5830872929516078        1.337181147654178E-18
2.600540585471551         9.066030839581121E-18
2.6179938779914944        5.6240817346504485E-18
2.6354471705114375        5.588876759572087E-18
2.6529004630313806        9.563743839084246E-18
2.670353755551324         9.523317087729735E-18
2.6878070480712677        8.380673630769158E-18
2.705260340591211         1.3670495466222714E-17
2.722713633111154         1.0562980651446283E-17
2.740166925631097         1.2491943372353417E-17
2.7576202181510405        1.784842839907098E-17
2.775073510670984         1.1875499865828895E-17
2.792526803190927         2.1159386174940576E-17
2.8099800957108703        1.7037508483454908E-17
2.827433388230814         2.0388894224627447E-17
2.844886680750757         2.2455702274771185E-17
2.8623399732707           2.135982453651412E-17
2.8797932657906435        2.450236519217668E-17
2.897246558310587         2.5989062329683674E-17
2.9146998508305306        2.437082407044527E-17
2.9321531433504737        3.0246734731359367E-17
2.949606435870417         2.5254262606475533E-17
2.9670597283903604        3.191803527636499E-17
2.9845130209103035        2.8869259736060384E-17
3.0019663134302466        3.204306384863858E-17
3.01941960595019          3.427100573196661E-17
3.036872898470133         3.560449681657961E-17
3.0543261909900763        3.841446769147571E-17
3.07177948351002          2.7929440333691985E-17
3.0892327760299634        1.4637427126331303E-17
3.106686068549907         1.458943888534672E-17
3.12413936106985          1.3569328583650983E-17
3.141592653589793         3.466998498705996E-31
3.159045946109736         1.3569328583651568E-17
3.1764992386296798        1.458943888534666E-17
3.193952531149623         1.4637427126331248E-17
3.211405823669566         2.7929440333691664E-17
3.2288591161895095        3.841446769147471E-17
3.2463124087094526        3.560449681657982E-17
3.2637657012293966        3.4271005731966597E-17
3.2812189937493397        3.2043063848638393E-17
3.2986722862692828        2.886925973606007E-17
3.3161255787892263        3.191803527636498E-17
3.3335788713091694        2.525426260647566E-17
3.3510321638291125        3.0246734731359244E-17
3.368485456349056         2.4370824070445218E-17
3.385938748868999         2.598906232968372E-17
3.4033920413889422        2.4502365192176732E-17
3.420845333908886         2.1359824536514236E-17
3.438298626428829         2.245570227477126E-17
3.455751918948773         2.0388894224627176E-17
3.473205211468716         1.7037508483454892E-17
3.490658503988659         2.1159386174940268E-17
3.5081117965086026        1.1875499865828874E-17
3.5255650890285457        1.784842839907092E-17
3.543018381548489         1.24919433723538E-17
3.560471674068432         1.056298065144597E-17
3.5779249665883754        1.3670495466222919E-17
3.5953782591083185        8.380673630769337E-18
3.6128315516282616        9.523317087729845E-18
3.6302848441482056        9.563743839084237E-18
3.6477381366681487        5.588876759572375E-18
3.6651914291880923        5.624081734650365E-18
3.6826447217080354        9.06603083958099E-18
3.7000980142279785        1.3371811476541368E-18
3.717551306747922         5.4859464170924336E-18
3.735004599267865         6.039218838548357E-18
3.752457891787808         2.94172514045671E-18
3.7699111843077517        4.9598792135812955E-18
3.787364476827695         4.85516577357679E-18
3.804817769347638         3.6411993336726854E-18
3.822271061867582         2.9212511949393815E-18
3.839724354387525         5.564708208908834E-18
3.8571776469074686        4.095821108993194E-18
3.8746309394274117        1.265176568678147E-18
3.8920842319473548        5.123526306906689E-18
3.9095375244672983        5.182418174768108E-18
3.9269908169872414        4.028155844626512E-18
3.9444441095071845        2.1428835219922683E-18
3.9618974020271276        4.780366608177896E-18
3.979350694547071         7.182302579232481E-18
3.9968039870670142        3.4751536130683805E-18
4.014257279586958         1.353062124619945E-19
4.031710572106902         5.530328642610026E-18
4.049163864626845         6.9052957925984765E-18
4.066617157146788         7.012062896000525E-18
4.084070449666731         3.522675306037345E-18
4.101523742186674         1.0720166228324777E-18
4.118977034706617         4.6984491494664675E-18
4.136430327226561         8.227866044150408E-18
4.153883619746504         7.114212165446196E-18
4.171336912266447         7.029180358322178E-18
4.1887902047863905        3.51007743654253E-18
4.2062434973063345        9.844616894241717E-19
4.223696789826278         2.3359198349956777E-18
4.241150082346221         6.3162774361443146E-18
4.258603374866164         7.846381661870122E-18
4.276056667386107         7.093105108547948E-18
4.293509959906051         7.950717824166609E-18
4.310963252425994         7.106335047272672E-18
4.328416544945937         4.477911213738728E-18
4.34586983746588          2.967898541428212E-18
4.363323129985823         1.3926113005465324E-18
4.380776422505767         1.2419458883123497E-18
4.39822971502571          3.182668340506772E-18
4.4156830075456535        4.804831618824141E-18
4.4331363000655974        7.13481038813738E-18
4.4505895925855405        9.350315619416953E-18
4.468042885105484         1.047705054775231E-17
4.485496177625427         1.1207011164799132E-17
4.50294947014537          1.3033308377631528E-17
4.520402762665313         1.5973472421204768E-17
4.537856055185257         1.8879056222766314E-17
4.5553093477052           2.1059901748027306E-17
4.572762640225144         2.2651310464944757E-17
4.590215932745087         2.4310637061521277E-17
4.60766922526503          2.6767650975704166E-17
4.625122517784973         3.047032023967787E-17
4.642575810304916         3.553487577458593E-17
4.6600291028248595        4.1933139969306833E-17
4.677482395344803         4.966738859823678E-17
4.694935687864747         5.883086883241469E-17
4.71238898038469          6.959389629199697E-17
4.729842272904633         8.216606348705709E-17
4.747295565424577         9.675734467801734E-17
4.76474885794452          1.1354244134122217E-16
4.782202150464463         1.3262470092199204E-16
4.799655442984406         1.5399326767809685E-16
4.817108735504349         1.7746881593091737E-16
4.834562028024293         2.0264220542076317E-16
4.852015320544236         2.288294314343159E-16
4.869468613064179         2.550894721919599E-16
4.886921905584122         2.803570582821885E-16
4.9043751981040655        3.0369871527268266E-16
4.921828490624009         3.245987511535335E-16
4.939281783143953         3.4307746398722424E-16
4.956735075663896         3.5945856081707377E-16
4.97418836818384          3.738344861170868E-16
4.991641660703783         3.8564301599884024E-16
5.009094953223726         3.9392807552562623E-16
5.026548245743669         3.984245542937547E-16
5.044001538263612         4.006740869841473E-16
5.061454830783555         4.038490970315478E-16
5.078908123303498         4.1063676675613044E-16
5.096361415823442         4.2021431890402794E-16
5.113814708343385         4.2750348116342193E-16
5.131268000863329         4.272306580374171E-16
5.1487212933832724        4.1948811520417035E-16
5.1661745859032155        4.111015262208388E-16
5.183627878423159         4.09993099678281E-16
5.201081170943102         4.1453631095502657E-16
5.218534463463045         4.129852715784455E-16
5.235987755982989         3.987008558178942E-16
5.253441048502932         3.8134496165913427E-16
5.270894341022875         3.7512945224877753E-16
5.288347633542818         3.7433747009354953E-16
5.305800926062761         3.6177712991586405E-16
5.323254218582705         3.394143179245112E-16
5.340707511102648         3.2505639997767677E-16
5.358160803622591         3.1752279565116777E-16
5.375614096142535         3.019367793390919E-16
5.3930673886624785        2.818275131379779E-16
5.410520681182422         2.665788574761504E-16
5.427973973702365         2.507230774610427E-16
5.445427266222308         2.3496554050420554E-16
5.462880558742251         2.225155757144901E-16
5.480333851262194         2.042095415419423E-16
5.497787143782138         1.8892720638781758E-16
5.515240436302081         1.8593482631748098E-16
5.532693728822025         1.7282774895871798E-16
5.550147021341968         1.5880772088599478E-16
5.567600313861911         1.6496280716667423E-16
5.585053606381854         1.607040733111825E-16
5.602506898901797         1.542842595863081E-16
5.6199601914217405        1.6945231027714459E-16
5.6374134839416845        1.7293393339123036E-16
5.654866776461628         1.7973346148648157E-16
5.672320068981571         2.0291978329008412E-16
5.689773361501514         2.1421765415491539E-16
5.707226654021458         2.3732106966936407E-16
5.7246799465414           2.650522270592351E-16
5.742133239061344         2.8784323629483557E-16
5.759586531581287         3.2544060495842916E-16
5.777039824101231         3.5589056446322556E-16
5.794493116621174         3.968279261612998E-16
5.811946409141117         4.4033623118391743E-16
5.829399701661061         4.792953904969957E-16
5.8468529941810035        5.3695478526932E-16
5.8643062867009474        5.770679541169853E-16
5.88175957922089          6.347017002793926E-16
5.899212871740834         6.900444760276152E-16
5.916666164260777         7.33047876989896E-16
5.934119456780721         8.007909731750965E-16
5.951572749300663         8.394496342527057E-16
5.969026041820607         8.95526544699833E-16
5.986479334340551         9.447039842523303E-16
6.003932626860493         9.822940500839185E-16
6.021385919380437         1.0297694292601797E-15
6.03883921190038          1.067113363030572E-15
6.056292504420323         1.1039750379955117E-15
6.073745796940266         1.1401870001522823E-15
6.09119908946021          1.1916509240323792E-15
6.108652381980153         1.2114981387786132E-15
6.126105674500097         1.2866285105259129E-15
6.14355896702004          1.3085149660315428E-15
6.161012259539983         1.3758049105821175E-15
6.178465552059927         1.5590153692889291E-15
6.19591884457987          1.5040743107939633E-15
6.213372137099814         1.0642887866430896E-15
6.230825429619756         5.429330845181704E-16
6.2482787221397           3.4476751987837873E-16
6.265732014659642         2.168903394389622E-16
6.283185307179586         4.023692882526699E-30
